# vtk DataFile Version 3.0
vtk output
ASCII
DATASET POLYDATA
POINTS 11280 float
224.20599365 181.93099976 54.52140045
223.55000305 181.08000183 54.93429947
223.22799683 181.75599670 54.81340027
225.44500732 181.73300171 54.44139862
224.50000000 180.81399536 54.80179977
226.66099548 181.72000122 54.45579910
225.70199585 180.73399353 54.73939896
227.78500366 181.78900146 54.55469894
226.92599487 180.85099792 54.77909851
227.92999268 181.13099670 54.83980179
223.34100342 182.76100159 54.53530121
222.77200317 182.09199524 54.88970184
222.20700073 182.86399841 54.96649933
224.37600708 183.00399780 54.26589966
225.30700684 182.79699707 54.21469879
226.49499512 182.73199463 54.20650101
227.72300720 182.73899841 54.28530121
228.56300354 181.77000427 54.71870041
228.92199707 182.67599487 54.49810028
229.26300049 182.09399414 54.79190063
222.86599731 184.14399719 54.42890167
221.84599304 184.05299377 54.74430084
224.08000183 183.94099426 54.20500183
225.20300293 183.88499451 54.08280182
226.37600708 183.83599854 54.04410172
227.62699890 183.83999634 54.07429886
228.90299988 183.84899902 54.20980072
229.89500427 182.74099731 54.74869919
230.22599792 183.80700684 54.51539993
231.42599487 184.17199707 54.80410004
230.93800354 183.01400757 55.09120178
231.77000427 183.72799683 55.14970016
221.99899292 185.19599915 54.47909927
221.23399353 184.59399414 54.84410095
220.93200684 185.54600525 54.74710083
223.03799438 185.39799500 54.23320007
223.94099426 185.13800049 54.13169861
225.08099365 185.03199768 54.02799988
226.28799438 185.00300598 53.96820068
227.54200745 185.01300049 53.95859909
228.81300354 185.03700256 54.02270126
230.05599976 185.04299927 54.20539856
231.17700195 185.04899597 54.51499939
232.04699707 184.27999878 55.09659958
232.00599670 184.94400024 54.94900131
232.43899536 184.48699951 55.54040146
221.66700745 186.52200317 54.39810181
220.58200073 186.67999268 54.63499832
222.78399658 186.39999390 54.21120071
223.88000488 186.33099365 54.08369827
225.01600647 186.24800110 54.00479889
226.23399353 186.22099304 53.94929886
227.49200439 186.23399353 53.92229843
228.75399780 186.25599670 53.94580078
229.97000122 186.25100708 54.06650162
231.07000732 186.17100525 54.33950043
231.96099854 185.94500732 54.80839920
232.56300354 185.46000671 55.49800110
221.36500549 187.86799622 54.31119919
220.24499512 187.60699463 54.53630066
222.61900330 187.63800049 54.17100143
223.79299927 187.53300476 54.06869888
224.98300171 187.48300171 54.00109863
226.21299744 187.46800232 53.95610046
227.47399902 187.48300171 53.92819977
228.73199463 187.50300598 53.93569946
229.93899536 187.49000549 54.02399826
231.03300476 187.38499451 54.25830078
231.95100403 187.12199402 54.70589828
232.64399719 186.62600708 55.42549896
216.93400574 189.36099243 54.83079910
216.16099548 188.71299744 55.34669876
215.98899841 189.65699768 55.07450104
218.03300476 189.14100647 54.63050079
217.17300415 188.19999695 55.19480133
219.20300293 188.99699402 54.45479965
218.36900330 188.08200073 54.86790085
220.46499634 188.78500366 54.31969833
219.40600586 187.91299438 54.65579987
221.65400696 189.12100220 54.16289902
222.58900452 188.89700317 54.11399841
223.75000000 188.77999878 54.05189896
224.96400452 188.73100281 54.00389862
226.21099854 188.72500610 53.96939850
227.47700500 188.74299622 53.94660187
228.73699951 188.76400757 53.95080185
229.94299316 188.75000000 54.02439880
231.04200745 188.64300537 54.23260117
231.97500610 188.37699890 54.63970184
232.70799255 187.90299988 55.31000137
216.75799561 190.44599915 54.61840057
215.81900024 190.70399475 54.93650055
217.81900024 190.25900269 54.40930176
218.97900391 190.14100647 54.27259827
220.19799805 190.06300354 54.18190002
221.42100525 190.07499695 54.11109924
222.58399963 190.08700562 54.06129837
223.74299622 190.02400208 54.03120041
224.96099854 189.98699951 54.00419998
226.21499634 189.98300171 53.97990036
227.48800659 190.00399780 53.96129990
228.75300598 190.02799988 53.96490097
229.96699524 190.01800537 54.03060150
231.07800293 189.91900635 54.22169876
232.03999329 189.66999817 54.60670090
232.78700256 189.19999695 55.19800186
216.65199280 191.58799744 54.51480103
215.73399353 191.87100220 54.87170029
217.69000244 191.40800476 54.27470016
218.83200073 191.30900574 54.13769913
220.04299927 191.26300049 54.07189941
221.28199768 191.25300598 54.04219818
222.51199341 191.25999451 54.02539825
223.73100281 191.25300598 54.01440048
224.96400452 191.23899841 54.00299835
226.22300720 191.24099731 53.98690033
227.49899292 191.26300049 53.96969986
228.77200317 191.28999329 53.96950150
230.00199890 191.28900146 54.02650070
231.13099670 191.20199585 54.19900131
232.10899353 190.97500610 54.55649948
232.97200012 190.57299805 55.19770050
216.62199402 192.78500366 54.49179840
215.74899292 193.09700012 54.86510086
217.63099670 192.60200500 54.22620010
218.75599670 192.51100159 54.07040024
219.96099854 192.47900391 54.00439835
221.20599365 192.47500610 53.99150085
222.46099854 192.48199463 53.99760056
223.71299744 192.48800659 54.00400162
224.96499634 192.49000549 54.00320053
226.22999573 192.49800110 53.99229813
227.50799561 192.51899719 53.97449875
228.78500366 192.54899597 53.96730042
230.03199768 192.56100464 54.01179886
231.20399475 192.50199890 54.16970062
232.19299316 192.27000427 54.48300171
232.96800232 191.89399719 54.99710083
216.65600586 193.98199463 54.52849960
215.86799622 194.31100464 54.89270020
217.62500000 193.81399536 54.24959946
218.73199463 193.73699951 54.06890106
219.92999268 193.71499634 53.98410034
221.17599487 193.71899414 53.96720123
222.43899536 193.72900391 53.98099899
223.70399475 193.73800659 53.99819946
224.96800232 193.74499512 54.00490189
226.23800659 193.75500488 53.99720001
227.51600647 193.77499390 53.97779846
228.79299927 193.80400085 53.96310043
230.04499817 193.82299805 53.99209976
231.24000549 193.79699707 54.12929916
232.39599609 193.67300415 54.46469879
233.05900574 193.05900574 54.88010025
216.72000122 195.06799316 54.60879898
216.11700439 195.28500366 54.89970016
217.63800049 194.99699402 54.33890152
218.73500061 194.96000671 54.13069916
219.92799377 194.95799255 54.01150131
221.17300415 194.97200012 53.97050095
222.43800354 194.98699951 53.97539902
223.70599365 194.99800110 53.99420166
224.97500610 195.00500488 54.00550079
226.24699402 195.01400757 54.00040054
227.52400208 195.03199768 53.98020172
228.79899597 195.05700684 53.96030045
230.04600525 195.07499695 53.97639847
231.22700500 195.05499268 54.08670044
232.29299927 194.95700073 54.35480118
233.25300598 193.95899963 54.89870071
233.16400146 194.79499817 54.79859924
233.75500488 194.39599609 55.38999939
216.71499634 195.84300232 54.73450089
217.09899902 196.54600525 54.75659943
217.59500122 196.12699890 54.50910187
218.73800659 196.15800476 54.26139832
219.93800354 196.19000244 54.09289932
221.18299866 196.22200012 54.00650024
222.44700623 196.24499512 53.98289871
223.71699524 196.25999451 53.99060059
224.98699951 196.26800537 54.00159836
226.25900269 196.27499390 53.99929810
227.53399658 196.28900146 53.98080063
228.80400085 196.30900574 53.95970154
230.04499817 196.32299805 53.96969986
231.21800232 196.29800415 54.06589890
232.26699829 196.18400574 54.31010056
233.13900757 195.93400574 54.74280167
233.80099487 195.49200439 55.36650085
217.77400208 197.04800415 54.64950180
218.24800110 197.77900696 54.69770050
218.72999573 197.33799744 54.46289825
219.94999695 197.40400696 54.23590088
221.19700623 197.46000671 54.08520126
222.46200562 197.49899292 54.01050186
223.73199463 197.52000427 53.99000168
225.00199890 197.53100586 53.99209976
226.27299500 197.53900146 53.99160004
227.54400635 197.54800415 53.97829819
228.80599976 197.56100464 53.96110153
230.03799438 197.56900024 53.97129822
231.20399475 197.54200745 54.06330109
232.25300598 197.42199707 54.29930115
233.13499451 197.14599609 54.72200012
233.82400513 196.67999268 55.33909988
218.97500610 198.29400635 54.61679840
219.46299744 199.02799988 54.66450119
219.95599365 198.60200500 54.43899918
221.20700073 198.69000244 54.21549988
222.47599792 198.74899292 54.07020187
223.74699402 198.77999878 54.00070190
225.01699829 198.79600525 53.98089981
226.28599548 198.80400085 53.97809982
227.55200195 198.80799866 53.97259903
228.80400085 198.81100464 53.96549988
230.01899719 198.80400085 53.98139954
231.16799927 198.77699280 54.07339859
232.22000122 198.67700195 54.31069946
233.12699890 198.40299988 54.73649979
233.84399414 197.91099548 55.34479904
220.18699646 199.55299377 54.58140182
220.61099243 200.26699829 54.61610031
221.17799377 199.90499878 54.39979935
222.47200012 200.00500488 54.17559814
223.75500488 200.03999329 54.03760147
225.02499390 200.05799866 53.97880173
226.28999329 200.06599426 53.96480179
227.54899597 200.06700134 53.96649933
228.79100037 200.05700684 53.97510147
229.99200439 200.02999878 54.00640106
231.10099792 199.96699524 54.09529877
232.13099670 199.91600037 54.32540131
233.08599854 199.72700500 54.77050018
233.86900330 199.20899963 55.40380096
221.30700684 200.87300110 54.53870010
221.61000061 201.81399536 54.64830017
222.40800476 201.30999756 54.34909821
223.74499512 201.30099487 54.12020111
225.01499939 201.30900574 54.00579834
226.27200317 201.31500244 53.96680069
227.52000427 201.31100464 53.96929932
228.74699402 201.28999329 53.99349976
229.93499756 201.24899292 54.04809952
231.05700684 201.16099548 54.16279984
231.92799377 200.92500305 54.31969833
232.92300415 201.15899658 54.76910019
233.89599609 200.69500732 55.49459839
222.66299438 202.64399719 54.51910019
221.77699280 202.85899353 54.85829926
223.74600220 202.53900146 54.26279831
224.97799683 202.52999878 54.09059906
226.21899414 202.52600098 54.00899887
227.44599915 202.51899719 53.99909973
228.65600586 202.49200439 54.03509903
229.81100464 202.41900635 54.10290146
230.92599487 202.36799622 54.24779892
232.12199402 202.21499634 54.54320145
233.20199585 202.49099731 55.06669998
233.67999268 201.82099915 55.31520081
222.62600708 203.58200073 54.76649857
221.92399597 203.53199768 55.00949860
[...]
POINT_DATA 11280
SCALARS tawss float 1
LOOKUP_TABLE default
46.00000000
53.00000000
89.00000000
4.00000000
9.00000000
0.00000000
0.00000000
0.00000000
0.00000000
0.00000000
121.00000000
125.00000000
183.00000000
75.00000000
29.00000000
1.00000000
0.00000000
0.00000000
0.00000000
0.00000000
193.00000000
235.00000000
125.00000000
65.00000000
19.00000000
0.00000000
0.00000000
0.00000000
0.00000000
0.00000000
2.00000000
5.00000000
254.00000000
254.00000000
254.00000000
226.00000000
176.00000000
114.00000000
55.00000000
9.00000000
0.00000000
0.00000000
0.00000000
4.00000000
0.00000000
8.00000000
254.00000000
254.00000000
254.00000000
219.00000000
165.00000000
100.00000000
40.00000000
4.00000000
0.00000000
0.00000000
0.00000000
1.00000000
254.00000000
232.00000000
254.00000000
253.00000000
206.00000000
147.00000000
82.00000000
33.00000000
1.00000000
0.00000000
0.00000000
0.00000000
19.00000000
11.00000000
0.00000000
75.00000000
65.00000000
136.00000000
128.00000000
206.00000000
186.00000000
244.00000000
254.00000000
254.00000000
244.00000000
193.00000000
129.00000000
68.00000000
19.00000000
0.00000000
0.00000000
0.00000000
1.00000000
0.00000000
30.00000000
82.00000000
147.00000000
206.00000000
250.00000000
254.00000000
254.00000000
232.00000000
176.00000000
110.00000000
53.00000000
11.00000000
0.00000000
0.00000000
0.00000000
0.00000000
3.00000000
38.00000000
96.00000000
158.00000000
218.00000000
254.00000000
254.00000000
254.00000000
219.00000000
158.00000000
96.00000000
44.00000000
4.00000000
0.00000000
0.00000000
0.00000000
0.00000000
7.00000000
50.00000000
106.00000000
171.00000000
229.00000000
254.00000000
254.00000000
250.00000000
202.00000000
140.00000000
82.00000000
30.00000000
3.00000000
0.00000000
0.00000000
0.00000000
0.00000000
15.00000000
65.00000000
129.00000000
189.00000000
239.00000000
254.00000000
254.00000000
239.00000000
187.00000000
125.00000000
65.00000000
22.00000000
0.00000000
0.00000000
0.00000000
0.00000000
0.00000000
27.00000000
82.00000000
147.00000000
203.00000000
250.00000000
254.00000000
254.00000000
226.00000000
173.00000000
114.00000000
38.00000000
65.00000000
30.00000000
0.00000000
1.00000000
0.00000000
0.00000000
0.00000000
3.00000000
40.00000000
99.00000000
161.00000000
220.00000000
254.00000000
254.00000000
254.00000000
219.00000000
165.00000000
110.00000000
62.00000000
0.00000000
0.00000000
0.00000000
0.00000000
0.00000000
9.00000000
55.00000000
114.00000000
178.00000000
235.00000000
254.00000000
254.00000000
250.00000000
206.00000000
158.00000000
103.00000000
0.00000000
0.00000000
0.00000000
0.00000000
0.00000000
19.00000000
71.00000000
132.00000000
196.00000000
244.00000000
254.00000000
254.00000000
242.00000000
200.00000000
147.00000000
0.00000000
0.00000000
0.00000000
0.00000000
1.00000000
32.00000000
85.00000000
150.00000000
212.00000000
254.00000000
254.00000000
254.00000000
239.00000000
192.00000000
0.00000000
0.00000000
0.00000000
0.00000000
4.00000000
46.00000000
103.00000000
169.00000000
220.00000000
254.00000000
254.00000000
254.00000000
237.00000000
0.00000000
1.00000000
0.00000000
0.00000000
11.00000000
55.00000000
117.00000000
179.00000000
229.00000000
254.00000000
254.00000000
254.00000000
0.00000000
3.00000000
0.00000000
0.00000000
0.00000000
19.00000000
68.00000000
128.00000000
186.00000000
224.00000000
254.00000000
6.00000000
4.00000000
0.00000000
0.00000000
0.00000000
1.00000000
30.00000000
68.00000000
146.00000000
189.00000000
226.00000000
0.00000000
0.00000000
0.00000000
0.00000000
0.00000000
9.00000000
38.00000000
85.00000000
143.00000000
0.00000000
0.00000000
6.00000000
0.00000000
0.00000000
6.00000000
0.00000000
0.00000000
0.00000000
0.00000000
0.00000000
0.00000000
1.00000000
10.00000000
44.00000000
0.00000000
0.00000000
0.00000000
1.00000000
0.00000000
6.00000000
50.00000000
93.00000000
19.00000000
0.00000000
0.00000000
0.00000000
6.00000000
1.00000000
19.00000000
106.00000000
155.00000000
0.00000000
17.00000000
5.00000000
26.00000000
209.00000000
212.00000000
248.00000000
0.00000000
24.00000000
9.00000000
24.00000000
254.00000000
254.00000000
254.00000000
246.00000000
14.00000000
19.00000000
34.00000000
254.00000000
254.00000000
223.00000000
254.00000000
19.00000000
215.00000000
169.00000000
254.00000000
3.00000000
136.00000000
121.00000000
82.00000000
179.00000000
229.00000000
0.00000000
0.00000000
3.00000000
0.00000000
35.00000000
0.00000000
0.00000000
0.00000000
0.00000000
0.00000000
0.00000000
0.00000000
0.00000000
0.00000000
0.00000000
2.00000000
2.00000000
0.00000000
0.00000000
23.00000000
15.00000000
3.00000000
14.00000000
58.00000000
19.00000000
48.00000000
94.00000000
10.00000000
55.00000000
84.00000000
124.00000000
42.00000000
6.00000000
96.00000000
124.00000000
135.00000000
81.00000000
31.00000000
3.00000000
136.00000000
101.00000000
97.00000000
68.00000000
21.00000000
0.00000000
180.00000000
88.00000000
97.00000000
55.00000000
14.00000000
0.00000000
219.00000000
81.00000000
109.00000000
39.00000000
4.00000000
254.00000000
253.00000000
113.00000000
101.00000000
74.00000000
23.00000000
254.00000000
254.00000000
88.00000000
37.00000000
16.00000000
37.00000000
183.00000000
247.00000000
12.00000000
1.00000000
0.00000000
8.00000000
35.00000000
103.00000000
132.00000000
199.00000000
1.00000000
25.00000000
0.00000000
0.00000000
0.00000000
12.00000000
49.00000000
99.00000000
150.00000000
11.00000000
37.00000000
0.00000000
0.00000000
0.00000000
0.00000000
17.00000000
55.00000000
25.00000000
23.00000000
6.00000000
0.00000000
0.00000000
0.00000000
0.00000000
4.00000000
0.00000000
0.00000000
105.00000000
105.00000000
64.00000000
174.00000000
164.00000000
208.00000000
29.00000000
21.00000000
1.00000000
77.00000000
134.00000000
226.00000000
191.00000000
229.00000000
0.00000000
0.00000000
0.00000000
4.00000000
37.00000000
91.00000000
145.00000000
217.00000000
192.00000000
226.00000000
0.00000000
0.00000000
0.00000000
0.00000000
0.00000000
4.00000000
48.00000000
101.00000000
156.00000000
201.00000000
32.00000000
16.00000000
64.00000000
119.00000000
171.00000000
82.00000000
34.00000000
88.00000000
142.00000000
133.00000000
46.00000000
131.00000000
91.00000000
124.00000000
180.00000000
48.00000000
112.00000000
84.00000000
112.00000000
213.00000000
231.00000000
184.00000000
253.00000000
254.00000000
254.00000000
212.00000000
246.00000000
48.00000000
80.00000000
72.00000000
72.00000000
33.00000000
137.00000000
122.00000000
177.00000000
222.00000000
254.00000000
254.00000000
254.00000000
254.00000000
254.00000000
254.00000000
254.00000000
248.00000000
254.00000000
51.00000000
27.00000000
2.00000000
69.00000000
125.00000000
180.00000000
228.00000000
254.00000000
254.00000000
140.00000000
132.00000000
78.00000000
209.00000000
206.00000000
26.00000000
1.00000000
0.00000000
22.00000000
72.00000000
130.00000000
184.00000000
232.00000000
254.00000000
78.00000000
38.00000000
147.00000000
8.00000000
0.00000000
0.00000000
1.00000000
30.00000000
79.00000000
140.00000000
194.00000000
235.00000000
13.00000000
15.00000000
0.00000000
72.00000000
1.00000000
0.00000000
1.00000000
0.00000000
0.00000000
0.00000000
3.00000000
36.00000000
85.00000000
147.00000000
197.00000000
0.00000000
0.00000000
0.00000000
0.00000000
0.00000000
0.00000000
0.00000000
0.00000000
0.00000000
0.00000000
0.00000000
6.00000000
44.00000000
97.00000000
151.00000000
0.00000000
1.00000000
0.00000000
0.00000000
0.00000000
0.00000000
1.00000000
0.00000000
0.00000000
0.00000000
11.00000000
54.00000000
100.00000000
3.00000000
29.00000000
0.00000000
0.00000000
0.00000000
2.00000000
0.00000000
0.00000000
0.00000000
0.00000000
18.00000000
59.00000000
29.00000000
71.00000000
3.00000000
0.00000000
0.00000000
0.00000000
0.00000000
0.00000000
4.00000000
27.00000000
67.00000000
113.00000000
29.00000000
0.00000000
109.00000000
153.00000000
64.00000000
18.00000000
150.00000000
185.00000000
106.00000000
50.00000000
171.00000000
178.00000000
142.00000000
85.00000000
164.00000000
161.00000000
171.00000000
125.00000000
127.00000000
156.00000000
147.00000000
183.00000000
140.00000000
150.00000000
175.00000000
117.00000000
223.00000000
179.00000000
164.00000000
175.00000000
135.00000000
254.00000000
223.00000000
153.00000000
127.00000000
168.00000000
254.00000000
254.00000000
254.00000000
138.00000000
116.00000000
156.00000000
68.00000000
247.00000000
254.00000000
254.00000000
135.00000000
164.00000000
98.00000000
51.00000000
19.00000000
192.00000000
240.00000000
254.00000000
156.00000000
142.00000000
124.00000000
94.00000000
42.00000000
106.00000000
176.00000000
212.00000000
247.00000000
128.00000000
131.00000000
138.00000000
77.00000000
19.00000000
48.00000000
114.00000000
158.00000000
106.00000000
146.00000000
58.00000000
0.00000000
4.00000000
27.00000000
65.00000000
106.00000000
124.00000000
127.00000000
94.00000000
39.00000000
3.00000000
0.00000000
0.00000000
0.00000000
2.00000000
127.00000000
116.00000000
88.00000000
39.00000000
2.00000000
0.00000000
0.00000000
0.00000000
94.00000000
34.00000000
2.00000000
0.00000000
142.00000000
142.00000000
84.00000000
201.00000000
198.00000000
233.00000000
77.00000000
39.00000000
142.00000000
238.00000000
220.00000000
254.00000000
254.00000000
254.00000000
10.00000000
5.00000000
0.00000000
55.00000000
238.00000000
254.00000000
0.00000000
0.00000000
0.00000000
0.00000000
236.00000000
248.00000000
251.00000000
0.00000000
0.00000000
3.00000000
0.00000000
235.00000000
0.00000000
35.00000000
210.00000000
38.00000000
78.00000000
184.00000000
110.00000000
129.00000000
165.00000000
75.00000000
164.00000000
149.00000000
156.00000000
165.00000000
206.00000000
125.00000000
127.00000000
142.00000000
134.00000000
216.00000000
209.00000000
180.00000000
244.00000000
209.00000000
248.00000000
178.00000000
112.00000000
107.00000000
103.00000000
53.00000000
159.00000000
140.00000000
254.00000000
254.00000000
254.00000000
254.00000000
240.00000000
254.00000000
88.00000000
4.00000000
254.00000000
254.00000000
254.00000000
254.00000000
57.00000000
0.00000000
254.00000000
68.00000000
82.00000000
38.00000000
154.00000000
209.00000000
37.00000000
0.00000000
0.00000000
0.00000000
254.00000000
22.00000000
4.00000000
19.00000000
6.00000000
13.00000000
0.00000000
0.00000000
238.00000000
0.00000000
0.00000000
0.00000000
4.00000000
0.00000000
0.00000000
200.00000000
0.00000000
0.00000000
0.00000000
1.00000000
155.00000000
23.00000000
0.00000000
5.00000000
104.00000000
67.00000000
0.00000000
8.00000000
56.00000000
113.00000000
0.00000000
0.00000000
0.00000000
1.00000000
0.00000000
0.00000000
0.00000000
0.00000000
20.00000000
161.00000000
0.00000000
0.00000000
182.00000000
11.00000000
0.00000000
208.00000000
44.00000000
9.00000000
192.00000000
213.00000000
79.00000000
40.00000000
195.00000000
192.00000000
184.00000000
201.00000000
117.00000000
85.00000000
198.00000000
192.00000000
129.00000000
206.00000000
176.00000000
189.00000000
189.00000000
220.00000000
191.00000000
192.00000000
254.00000000
189.00000000
182.00000000
254.00000000
188.00000000
171.00000000
178.00000000
254.00000000
164.00000000
149.00000000
171.00000000
232.00000000
254.00000000
164.00000000
153.00000000
189.00000000
226.00000000
178.00000000
175.00000000
24.00000000
68.00000000
124.00000000
149.00000000
175.00000000
1.00000000
22.00000000
69.00000000
182.00000000
146.00000000
182.00000000
0.00000000
0.00000000
3.00000000
22.00000000
153.00000000
124.00000000
161.00000000
74.00000000
29.00000000
4.00000000
0.00000000
0.00000000
0.00000000
142.00000000
139.00000000
106.00000000
51.00000000
21.00000000
1.00000000
98.00000000
51.00000000
70.00000000
66.00000000
27.00000000
148.00000000
137.00000000
209.00000000
207.00000000
248.00000000
250.00000000
254.00000000
254.00000000
254.00000000
0.00000000
0.00000000
0.00000000
8.00000000
1.00000000
39.00000000
90.00000000
155.00000000
213.00000000
250.00000000
254.00000000
254.00000000
254.00000000
0.00000000
0.00000000
0.00000000
6.00000000
44.00000000
100.00000000
162.00000000
216.00000000
254.00000000
254.00000000
211.00000000
215.00000000
178.00000000
251.00000000
250.00000000
254.00000000
254.00000000
254.00000000
0.00000000
0.00000000
0.00000000
0.00000000
9.00000000
56.00000000
114.00000000
170.00000000
213.00000000
254.00000000
70.00000000
77.00000000
29.00000000
138.00000000
124.00000000
184.00000000
229.00000000
254.00000000
254.00000000
0.00000000
0.00000000
0.00000000
0.00000000
0.00000000
16.00000000
66.00000000
137.00000000
180.00000000
222.00000000
12.00000000
0.00000000
70.00000000
134.00000000
195.00000000
241.00000000
254.00000000
0.00000000
0.00000000
0.00000000
0.00000000
0.00000000
23.00000000
72.00000000
133.00000000
0.00000000
0.00000000
0.00000000
1.00000000
26.00000000
84.00000000
145.00000000
217.00000000
253.00000000
0.00000000
1.00000000
25.00000000
67.00000000
0.00000000
0.00000000
0.00000000
0.00000000
0.00000000
2.00000000
37.00000000
98.00000000
164.00000000
247.00000000
229.00000000
254.00000000
254.00000000
254.00000000
0.00000000
7.00000000
0.00000000
0.00000000
0.00000000
6.00000000
51.00000000
113.00000000
178.00000000
241.00000000
254.00000000
13.00000000
43.00000000
0.00000000
0.00000000
0.00000000
0.00000000
16.00000000
67.00000000
127.00000000
181.00000000
254.00000000
246.00000000
254.00000000
254.00000000
254.00000000
254.00000000
254.00000000
46.00000000
82.00000000
12.00000000
0.00000000
0.00000000
0.00000000
1.00000000
26.00000000
94.00000000
254.00000000
254.00000000
254.00000000
85.00000000
117.00000000
46.00000000
9.00000000
0.00000000
0.00000000
0.00000000
2.00000000
25.00000000
254.00000000
121.00000000
143.00000000
93.00000000
40.00000000
4.00000000
0.00000000
0.00000000
0.00000000
254.00000000
254.00000000
254.00000000
122.00000000
136.00000000
82.00000000
24.00000000
0.00000000
0.00000000
254.00000000
114.00000000
155.00000000
58.00000000
4.00000000
243.00000000
144.00000000
169.00000000
107.00000000
42.00000000
223.00000000
155.00000000
203.00000000
93.00000000
204.00000000
194.00000000
197.00000000
181.00000000
177.00000000
242.00000000
156.00000000
138.00000000
111.00000000
117.00000000
72.00000000
170.00000000
187.00000000
230.00000000
254.00000000
254.00000000
254.00000000
254.00000000
116.00000000
48.00000000
44.00000000
11.00000000
254.00000000
254.00000000
254.00000000
254.00000000
254.00000000
254.00000000
254.00000000
91.00000000
7.00000000
0.00000000
254.00000000
215.00000000
218.00000000
176.00000000
252.00000000
244.00000000
64.00000000
0.00000000
0.00000000
254.00000000
96.00000000
22.00000000
45.00000000
31.00000000
39.00000000
0.00000000
254.00000000
0.00000000
0.00000000
0.00000000
25.00000000
0.00000000
240.00000000
0.00000000
0.00000000
0.00000000
12.00000000
0.00000000
0.00000000
200.00000000
64.00000000
64.00000000
91.00000000
25.00000000
34.00000000
0.00000000
3.00000000
4.00000000
0.00000000
6.00000000
2.00000000
8.00000000
152.00000000
88.00000000
97.00000000
71.00000000
23.00000000
0.00000000
0.00000000
16.00000000
100.00000000
109.00000000
127.00000000
74.00000000
0.00000000
0.00000000
16.00000000
50.00000000
113.00000000
149.00000000
0.00000000
4.00000000
0.00000000
0.00000000
0.00000000
0.00000000
11.00000000
150.00000000
171.00000000
0.00000000
188.00000000
208.00000000
0.00000000
0.00000000
0.00000000
236.00000000
6.00000000
0.00000000
241.00000000
35.00000000
4.00000000
217.00000000
215.00000000
226.00000000
75.00000000
29.00000000
229.00000000
214.00000000
218.00000000
122.00000000
69.00000000
229.00000000
169.00000000
114.00000000
204.00000000
223.00000000
203.00000000
165.00000000
229.00000000
211.00000000
229.00000000
244.00000000
209.00000000
229.00000000
204.00000000
231.00000000
254.00000000
217.00000000
201.00000000
231.00000000
254.00000000
211.00000000
233.00000000
184.00000000
254.00000000
217.00000000
218.00000000
195.00000000
200.00000000
229.00000000
226.00000000
204.00000000
231.00000000
147.00000000
186.00000000
208.00000000
234.00000000
88.00000000
241.00000000
220.00000000
252.00000000
1.00000000
32.00000000
238.00000000
254.00000000
198.00000000
0.00000000
0.00000000
0.00000000
3.00000000
252.00000000
254.00000000
231.00000000
182.00000000
15.00000000
0.00000000
0.00000000
0.00000000
0.00000000
244.00000000
241.00000000
215.00000000
156.00000000
84.00000000
34.00000000
6.00000000
0.00000000
212.00000000
156.00000000
97.00000000
54.00000000
21.00000000
27.00000000
4.00000000
73.00000000
130.00000000
201.00000000
254.00000000
254.00000000
254.00000000
254.00000000
254.00000000
0.00000000
0.00000000
254.00000000
198.00000000
217.00000000
167.00000000
242.00000000
248.00000000
254.00000000
254.00000000
254.00000000
254.00000000
254.00000000
0.00000000
254.00000000
254.00000000
254.00000000
254.00000000
249.00000000
109.00000000
127.00000000
54.00000000
181.00000000
254.00000000
0.00000000
254.00000000
254.00000000
250.00000000
21.00000000
9.00000000
0.00000000
254.00000000
0.00000000
0.00000000
194.00000000
238.00000000
254.00000000
254.00000000
0.00000000
0.00000000
254.00000000
254.00000000
254.00000000
0.00000000
0.00000000
2.00000000
0.00000000
170.00000000
203.00000000
0.00000000
0.00000000
0.00000000
254.00000000
254.00000000
254.00000000
254.00000000
1.00000000
0.00000000
0.00000000
0.00000000
0.00000000
2.00000000
33.00000000
86.00000000
148.00000000
1.00000000
254.00000000
254.00000000
254.00000000
254.00000000
251.00000000
0.00000000
0.00000000
0.00000000
0.00000000
0.00000000
4.00000000
41.00000000
29.00000000
254.00000000
254.00000000
254.00000000
254.00000000
254.00000000
0.00000000
0.00000000
4.00000000
75.00000000
254.00000000
114.00000000
254.00000000
136.00000000
254.00000000
254.00000000
254.00000000
155.00000000
183.00000000
254.00000000
151.00000000
183.00000000
254.00000000
169.00000000
176.00000000
247.00000000
169.00000000
189.00000000
226.00000000
193.00000000
215.00000000
213.00000000
198.00000000
204.00000000
221.00000000
248.00000000
181.00000000
254.00000000
254.00000000
159.00000000
134.00000000
47.00000000
79.00000000
33.00000000
148.00000000
187.00000000
230.00000000
254.00000000
254.00000000
254.00000000
254.00000000
109.00000000
6.00000000
8.00000000
0.00000000
254.00000000
254.00000000
254.00000000
254.00000000
232.00000000
237.00000000
200.00000000
254.00000000
94.00000000
0.00000000
0.00000000
254.00000000
11.00000000
12.00000000
1.00000000
65.00000000
55.00000000
132.00000000
121.00000000
74.00000000
0.00000000
0.00000000
254.00000000
0.00000000
0.00000000
0.00000000
1.00000000
24.00000000
57.00000000
48.00000000
0.00000000
0.00000000
254.00000000
0.00000000
0.00000000
0.00000000
39.00000000
0.00000000
4.00000000
37.00000000
0.00000000
0.00000000
29.00000000
17.00000000
32.00000000
2.00000000
13.00000000
197.00000000
67.00000000
91.00000000
23.00000000
17.00000000
25.00000000
21.00000000
36.00000000
144.00000000
113.00000000
120.00000000
1.00000000
30.00000000
33.00000000
90.00000000
135.00000000
138.00000000
161.00000000
0.00000000
25.00000000
41.00000000
161.00000000
188.00000000
0.00000000
0.00000000
0.00000000
6.00000000
0.00000000
0.00000000
0.00000000
0.00000000
4.00000000
184.00000000
218.00000000
0.00000000
0.00000000
214.00000000
220.00000000
236.00000000
0.00000000
234.00000000
248.00000000
0.00000000
254.00000000
254.00000000
2.00000000
241.00000000
254.00000000
24.00000000
254.00000000
250.00000000
254.00000000
229.00000000
62.00000000
254.00000000
254.00000000
241.00000000
103.00000000
246.00000000
254.00000000
140.00000000
254.00000000
246.00000000
254.00000000
242.00000000
194.00000000
254.00000000
250.00000000
254.00000000
254.00000000
239.00000000
254.00000000
254.00000000
244.00000000
254.00000000
254.00000000
254.00000000
252.00000000
251.00000000
254.00000000
254.00000000
235.00000000
252.00000000
244.00000000
254.00000000
254.00000000
248.00000000
254.00000000
143.00000000
195.00000000
254.00000000
254.00000000
103.00000000
139.00000000
254.00000000
254.00000000
254.00000000
43.00000000
88.00000000
254.00000000
254.00000000
254.00000000
254.00000000
9.00000000
254.00000000
254.00000000
254.00000000
254.00000000
0.00000000
0.00000000
0.00000000